
Predictions were generated on 23-Jun-2017 at 10:29:34 using OpenFAST (v8.17.01c-dev, 12-Jun-2017), compiled as a 32-bit application using single precision
 linked with  NWTC Subroutine Library (v2.11.02, 13-Mar-2017); ElastoDyn (v1.04.00a-bjj, 26-Jul-2016); InflowWind (v3.04.00, 31-Dec-2016); AeroDyn (v15.04.02a, 10-May-2017); ServoDyn (v1.06.00a-bjj, 26-Jul-2016); HydroDyn (v2.05.00, 15-Mar-2016); SubDyn (v1.03.00, 11-Apr-2016)

Description from the FAST input file: FAST Certification Test #27: NREL 5.0 MW Baseline Wind Turbine with OC3 Monopile Soil-Pile-Intercation via linearized matrices; for use in offshore analysis

Time      	Wind1VelX 	Wind1VelY 	Wind1VelZ 	OoPDefl1  	IPDefl1   	TwstDefl1 	BldPitch1 	Azimuth   	RotSpeed  	GenSpeed  	TwHt1TPxi 	TwHt1TPyi 	TTDspTwst 	PtfmSurge 	PtfmSway  	PtfmRoll  	PtfmPitch 	Spn2MLxb1 	Spn2MLyb1 	RootFxc1  	RootFyc1  	RootFzc1  	RootMxc1  	RootMyc1  	RootMzc1  	RotTorq   	LSSGagMya 	LSSGagMza 	YawBrFxp  	YawBrFyp  	YawBrFzp  	YawBrMxp  	YawBrMyp  	YawBrMzp  	RtAeroFxh 	RtAeroFyh 	RtAeroFzh 	RtAeroMxh 	RtAeroMyh 	RtAeroMzh 	GenPwr    	GenTq     	Wave1Elev 	M2N1MKxe  	M2N1MKye  	M1N1MKxe  	M1N1MKye  	-ReactFXss	-ReactFYss	-ReactFZss	-ReactMXss	-ReactMYss	-ReactMZss
(s)       	(m/s)     	(m/s)     	(m/s)     	(m)       	(m)       	(deg)     	(deg)     	(deg)     	(rpm)     	(rpm)     	(m)       	(m)       	(deg)     	(m)       	(m)       	(deg)     	(deg)     	(kN·m)    	(kN·m)    	(kN)      	(kN)      	(kN)      	(kN·m)    	(kN·m)    	(kN·m)    	(kN·m)    	(kN·m)    	(kN·m)    	(kN)      	(kN)      	(kN)      	(kN·m)    	(kN·m)    	(kN·m)    	(N)       	(N)       	(N)       	(N·m)     	(N·m)     	(N·m)     	(kW)      	(kN·m)    	(m)       	(N*m)     	(N*m)     	(N*m)     	(N*m)     	(N)       	(N)       	(N)       	(Nm)      	(Nm)      	(Nm)      
    0.0000	 1.162E+01	 1.788E-02	-2.976E-01	 0.000E+00	 0.000E+00	 0.000E+00	 0.000E+00	 0.000E+00	 1.210E+01	 1.174E+03	 0.000E+00	 0.000E+00	 0.000E+00	 0.000E+00	 0.000E+00	 0.000E+00	 0.000E+00	 2.158E+01	-2.521E+01	 3.392E+01	 1.763E+00	 4.545E+02	-6.681E+00	 3.589E+02	 3.795E+01	 4.127E-04	-1.815E+03	 3.343E+01	 1.481E+01	 2.990E+00	-3.326E+03	 3.844E+01	-2.223E+02	-4.261E-04	 7.320E+05	-4.514E+04	 1.634E+04	 4.623E+06	 5.916E+06	-1.474E+06	 5.000E+03	 4.309E+01	 4.938E-01	 1.588E+04	-5.952E+05	 6.005E+03	-4.471E+04	-2.488E+04	-2.047E+01	-8.454E+06	 3.579E+01	-2.088E+04	-7.084E-03
    0.0500	 1.149E+01	 3.234E-01	-9.326E-01	 1.719E-01	-2.049E-02	 0.000E+00	 0.000E+00	 3.630E+00	 1.208E+01	 1.139E+03	 3.913E-05	 6.138E-05	 0.000E+00	-3.977E-04	-8.928E-05	 2.806E-04	 5.342E-04	-7.513E+01	 6.957E+01	 4.284E+01	-3.152E+01	 4.588E+02	 4.453E+02	 7.440E+02	 5.152E+01	 1.073E+03	-1.706E+03	 1.080E+02	-2.542E+00	 5.946E+01	-3.329E+03	 9.965E+02	-2.648E+02	 4.307E+01	 5.664E+05	-3.653E+04	 1.406E+04	 3.444E+06	 4.161E+06	-1.353E+06	 4.859E+03	 4.315E+01	 4.614E-01	 1.352E+05	-4.461E+05	 5.526E+04	 1.686E+04	-2.541E+04	-1.915E+02	-8.456E+06	 3.355E+02	-2.113E+04	 6.186E+04
    0.1000	 1.120E+01	 5.680E-01	-1.056E+00	 6.048E-01	-1.063E-01	 0.000E+00	 0.000E+00	 7.232E+00	 1.192E+01	 1.118E+03	 6.956E-05	 3.099E-04	 0.000E+00	-1.255E-03	-4.339E-04	 1.258E-03	 3.126E-03	-1.245E+02	 2.864E+02	 5.804E+01	-7.293E+01	 4.597E+02	 1.190E+03	 1.616E+03	 2.377E+00	 2.845E+03	-1.552E+03	 6.947E+01	-1.674E+01	 8.193E+01	-3.348E+03	 2.696E+03	-2.465E+02	-1.638E+02	 4.901E+05	-2.386E+04	 8.669E+03	 2.381E+06	 3.141E+06	-9.201E+05	 4.785E+03	 4.328E+01	 4.290E-01	-4.916E+05	-5.245E+05	-1.572E+05	 3.516E+03	-2.618E+04	 5.119E+02	-8.474E+06	-8.930E+02	-2.179E+04	-1.512E+05
    0.1500	 1.125E+01	 7.613E-01	-1.440E+00	 1.219E+00	-2.817E-01	 0.000E+00	 0.000E+00	 1.078E+01	 1.177E+01	 1.113E+03	 3.552E-04	 5.470E-05	 0.000E+00	-2.521E-03	-4.687E-06	-3.051E-04	 7.909E-03	 5.438E+01	 6.183E+02	 9.889E+01	-9.168E+01	 4.599E+02	 1.921E+03	 3.010E+03	 1.303E+01	 4.348E+03	-1.206E+03	-6.529E+01	-1.750E+01	 7.404E+01	-3.381E+03	 4.174E+03	 1.006E+02	-5.828E+02	 4.499E+05	-1.921E+04	 5.679E+03	 1.789E+06	 2.594E+06	-5.858E+05	 4.779E+03	 4.343E+01	 3.967E-01	-9.534E+05	-1.012E+06	-3.254E+05	-1.504E+05	-2.742E+04	 1.079E+03	-8.504E+06	-1.886E+03	-2.326E+04	-5.971E+05
    0.2000	 1.150E+01	 1.046E+00	-1.145E+00	 1.942E+00	-5.108E-01	 0.000E+00	 0.000E+00	 1.430E+01	 1.171E+01	 1.119E+03	 1.813E-03	-1.352E-03	 0.000E+00	-4.812E-03	 2.013E-03	-7.104E-03	 1.280E-02	 3.816E+02	 9.840E+02	 1.384E+02	-8.809E+01	 4.575E+02	 2.539E+03	 4.615E+03	-5.515E+01	 5.310E+03	-9.070E+02	-2.307E+02	-1.381E+01	 1.015E+02	-3.424E+03	 5.061E+03	 3.771E+02	-7.165E+02	 4.189E+05	-1.062E+04	 2.795E+03	 1.449E+06	 1.501E+06	-3.780E+05	 4.790E+03	 4.329E+01	 3.643E-01	-1.525E+05	-1.333E+06	-6.656E+04	-2.511E+05	-2.849E+04	 2.375E+02	-8.546E+06	-4.291E+02	-2.443E+04	-7.073E+05
    0.2500	 1.187E+01	 1.092E+00	-5.680E-01	 2.731E+00	-7.111E-01	 0.000E+00	 0.000E+00	 1.782E+01	 1.176E+01	 1.132E+03	 5.351E-03	-3.365E-03	 0.000E+00	-8.487E-03	 4.618E-03	-1.577E-02	 1.651E-02	 6.308E+02	 1.375E+03	 1.945E+02	-9.069E+01	 4.483E+02	 3.091E+03	 6.453E+03	-2.562E+01	 5.807E+03	-3.225E+02	-3.038E+02	-2.793E+01	 7.049E+01	-3.476E+03	 5.609E+03	 6.923E+02	-7.935E+02	 4.059E+05	-1.280E+04	 3.315E+03	 1.323E+06	 1.434E+06	-3.087E+05	 4.762E+03	 4.254E+01	 3.319E-01	 4.125E+05	-1.125E+06	 9.825E+04	-1.734E+05	-2.895E+04	-2.854E+02	-8.599E+06	 4.799E+02	-2.454E+04	-7.988E+05
    0.3000	 1.202E+01	 8.365E-01	-3.020E-01	 3.547E+00	-8.196E-01	 0.000E+00	 0.000E+00	 2.137E+01	 1.191E+01	 1.150E+03	 1.147E-02	-5.797E-03	 0.000E+00	-1.320E-02	 7.231E-03	-2.392E-02	 2.016E-02	 6.261E+02	 1.774E+03	 2.218E+02	-1.122E+02	 4.483E+02	 3.516E+03	 7.801E+03	-7.151E+01	 6.115E+03	-3.240E+01	-2.177E+02	-1.386E+00	-8.887E+00	-3.519E+03	 6.077E+03	 9.439E+02	-6.930E+02	 3.843E+05	-8.663E+03	 1.138E+03	 1.227E+06	 9.457E+05	-5.434E+05	 4.749E+03	 4.179E+01	 3.155E-01	 5.203E+05	-1.088E+06	 9.816E+04	-1.688E+05	-2.951E+04	-2.445E+02	-8.644E+06	 3.973E+02	-2.495E+04	-6.941E+05
    0.3500	 1.212E+01	 6.953E-01	-1.840E-02	 4.339E+00	-8.467E-01	 0.000E+00	 0.000E+00	 2.496E+01	 1.199E+01	 1.169E+03	 2.072E-02	-8.996E-03	 0.000E+00	-1.893E-02	 1.001E-02	-3.165E-02	 2.404E-02	 4.352E+02	 2.145E+03	 2.510E+02	-1.475E+02	 4.471E+02	 3.814E+03	 8.945E+03	-6.600E+01	 6.086E+03	 2.529E+02	-1.262E+02	 4.217E+01	-4.470E+01	-3.553E+03	 6.134E+03	 1.278E+03	-4.469E+02	 4.010E+05	-7.911E+03	 1.757E+03	 1.308E+06	 7.957E+05	-7.055E+05	 4.809E+03	 4.160E+01	 2.990E-01	 1.265E+06	-9.825E+05	 3.243E+05	-1.498E+05	-3.000E+04	-9.704E+02	-8.679E+06	 1.650E+03	-2.525E+04	-4.377E+05
    0.4000	 1.197E+01	 1.059E+00	-6.599E-01	 5.045E+00	-8.522E-01	 0.000E+00	 0.000E+00	 2.855E+01	 1.195E+01	 1.185E+03	 3.364E-02	-1.259E-02	 0.000E+00	-2.564E-02	 1.212E-02	-3.606E-02	 2.840E-02	 2.673E+02	 2.479E+03	 2.672E+02	-1.654E+02	 4.391E+02	 3.857E+03	 9.799E+03	-4.474E+01	 5.210E+03	 4.103E+02	 2.802E+01	 8.385E+01	-9.053E+01	-3.575E+03	 5.364E+03	 1.381E+03	-3.422E+02	 4.167E+05	-8.891E+03	 2.129E+03	 1.414E+06	 8.129E+05	-1.090E+06	 4.947E+03	 4.225E+01	 2.826E-01	 1.897E+06	-4.818E+05	 5.195E+05	 9.600E+01	-3.007E+04	-1.604E+03	-8.702E+06	 2.750E+03	-2.481E+04	-3.572E+05
    0.4500	 1.196E+01	 8.233E-01	-7.789E-01	 5.601E+00	-8.761E-01	 0.000E+00	 0.000E+00	 3.213E+01	 1.190E+01	 1.188E+03	 5.031E-02	-1.615E-02	 0.000E+00	-3.274E-02	 1.279E-02	-3.421E-02	 3.544E-02	 2.296E+02	 2.755E+03	 2.776E+02	-1.614E+02	 4.340E+02	 3.727E+03	 1.045E+04	-4.663E+01	 3.700E+03	 4.802E+02	 3.390E+02	 1.253E+02	-1.469E+02	-3.583E+03	 4.004E+03	 1.315E+03	-9.308E+00	 4.218E+05	-8.326E+03	 2.207E+03	 1.508E+06	 5.379E+05	-1.291E+06	 5.049E+03	 4.300E+01	 2.661E-01	 1.992E+06	 1.106E+05	 5.436E+05	 1.813E+05	-3.001E+04	-1.655E+03	-8.710E+06	 2.846E+03	-2.423E+04	-2.553E+04
    0.5000	 1.187E+01	 8.366E-01	-8.313E-01	 5.980E+00	-9.101E-01	 0.000E+00	 0.000E+00	 3.570E+01	 1.192E+01	 1.177E+03	 7.072E-02	-1.955E-02	 0.000E+00	-3.946E-02	 1.181E-02	-2.541E-02	 4.795E-02	 2.535E+02	 2.926E+03	 3.046E+02	-1.561E+02	 4.340E+02	 3.674E+03	 1.118E+04	-3.320E+01	 2.462E+03	 8.056E+02	 7.107E+02	 1.618E+02	-1.196E+02	-3.578E+03	 2.778E+03	 1.465E+03	 6.686E+02	 4.423E+05	-1.198E+04	 2.209E+03	 1.643E+06	 9.891E+05	-1.706E+06	 5.061E+03	 4.350E+01	 2.497E-01	 2.099E+06	 3.760E+05	 6.016E+05	 2.560E+05	-3.044E+04	-1.876E+03	-8.704E+06	 3.240E+03	-2.440E+04	 6.617E+05
    0.5500	 1.162E+01	 1.383E+00	-7.222E-01	 6.207E+00	-9.339E-01	 0.000E+00	 0.000E+00	 3.927E+01	 1.191E+01	 1.158E+03	 9.510E-02	-2.234E-02	 0.000E+00	-4.557E-02	 8.801E-03	-8.652E-03	 6.699E-02	 2.469E+02	 3.025E+03	 3.121E+02	-1.600E+02	 4.392E+02	 3.742E+03	 1.152E+04	-4.520E+01	 2.037E+03	 8.153E+02	 1.111E+03	 2.021E+02	-4.473E+01	-3.558E+03	 2.252E+03	 1.417E+03	 1.216E+03	 4.654E+05	-1.135E+04	 1.615E+02	 1.805E+06	 1.538E+06	-1.848E+06	 4.979E+03	 4.349E+01	 2.418E-01	 1.457E+06	 3.308E+05	 4.276E+05	 2.286E+05	-3.063E+04	-1.349E+03	-8.682E+06	 2.361E+03	-2.446E+04	 1.241E+06
    0.6000	 1.136E+01	 1.919E+00	-7.170E-01	 6.328E+00	-9.532E-01	 0.000E+00	 0.000E+00	 4.284E+01	 1.187E+01	 1.139E+03	 1.238E-01	-2.448E-02	 0.000E+00	-5.121E-02	 4.312E-03	 1.380E-02	 9.217E-02	 2.173E+02	 3.075E+03	 3.127E+02	-1.758E+02	 4.360E+02	 3.974E+03	 1.167E+04	-4.414E+01	 2.400E+03	 5.496E+02	 1.460E+03	 2.118E+02	 3.321E+01	-3.538E+03	 2.462E+03	 9.473E+02	 1.148E+03	 5.084E+05	-1.182E+04	 1.376E+03	 2.088E+06	 1.347E+06	-2.295E+06	 4.895E+03	 4.347E+01	 2.339E-01	-9.479E+04	 5.094E+05	-4.682E+04	 2.909E+05	-3.100E+04	 1.730E+02	-8.661E+06	-3.149E+02	-2.445E+04	 1.154E+06
    0.6500	 1.127E+01	 1.623E+00	-1.130E+00	 6.373E+00	-9.934E-01	 0.000E+00	 0.000E+00	 4.639E+01	 1.178E+01	 1.126E+03	 1.570E-01	-2.667E-02	 0.000E+00	-5.606E-02	 1.777E-04	 3.531E-02	 1.245E-01	 2.488E+02	 3.098E+03	 3.068E+02	-1.923E+02	 4.288E+02	 4.310E+03	 1.155E+04	-3.932E+01	 3.174E+03	 2.097E+02	 1.558E+03	 1.883E+02	 1.492E+02	-3.515E+03	 2.986E+03	 4.558E+02	 8.954E+02	 5.410E+05	-1.271E+04	 3.824E+03	 2.395E+06	 1.225E+06	-2.245E+06	 4.756E+03	 4.272E+01	 2.261E-01	-1.228E+06	 6.033E+05	-3.753E+05	 3.385E+05	-3.118E+04	 1.213E+03	-8.640E+06	-2.111E+03	-2.465E+04	 9.027E+05
    0.7000	 1.155E+01	 1.630E+00	-1.046E+00	 6.347E+00	-1.065E+00	 0.000E+00	 0.000E+00	 4.991E+01	 1.166E+01	 1.121E+03	 1.944E-01	-2.930E-02	 0.000E+00	-5.980E-02	-2.372E-03	 5.106E-02	 1.650E-01	 4.143E+02	 3.095E+03	 2.901E+02	-1.895E+02	 4.292E+02	 4.538E+03	 1.107E+04	-5.915E+01	 3.796E+03	-1.179E+02	 1.496E+03	 1.633E+02	 2.427E+02	-3.487E+03	 3.400E+03	 2.871E+02	 6.556E+02	 5.667E+05	-1.223E+04	 1.907E+03	 2.658E+06	 9.246E+05	-1.757E+06	 4.649E+03	 4.197E+01	 2.182E-01	-1.863E+06	 1.056E+04	-5.501E+05	 1.592E+05	-3.197E+04	 1.773E+03	-8.611E+06	-3.012E+03	-2.588E+04	 6.826E+05
    0.7500	 1.165E+01	 1.698E+00	-5.822E-01	 6.247E+00	-1.135E+00	 0.000E+00	 0.000E+00	 5.340E+01	 1.162E+01	 1.120E+03	 2.363E-01	-3.246E-02	 0.000E+00	-6.309E-02	-2.724E-03	 5.860E-02	 2.111E-01	 6.176E+02	 3.061E+03	 2.658E+02	-1.769E+02	 4.334E+02	 4.649E+03	 1.038E+04	-7.947E+01	 4.162E+03	-3.463E+02	 1.192E+03	 1.193E+02	 2.545E+02	-3.458E+03	 3.705E+03	 3.492E+02	 2.380E+02	 5.716E+05	-1.109E+04	 2.336E+03	 2.808E+06	 8.823E+05	-1.371E+06	 4.564E+03	 4.122E+01	 2.104E-01	-2.307E+06	-7.188E+05	-6.924E+05	-6.106E+04	-3.303E+04	 2.235E+03	-8.582E+06	-3.809E+03	-2.694E+04	 2.668E+05
    0.8000	 1.160E+01	 1.741E+00	-5.080E-01	 6.069E+00	-1.152E+00	 0.000E+00	 0.000E+00	 5.689E+01	 1.167E+01	 1.124E+03	 2.826E-01	-3.657E-02	 0.000E+00	-6.678E-02	-3.188E-04	 5.598E-02	 2.599E-01	 6.946E+02	 2.981E+03	 2.376E+02	-1.755E+02	 4.377E+02	 4.715E+03	 9.630E+03	-9.183E+01	 4.542E+03	-5.471E+02	 1.065E+03	 6.378E+01	 2.320E+02	-3.440E+03	 4.094E+03	 1.556E+02	-1.853E+02	 5.940E+05	-1.113E+04	 2.445E+03	 3.001E+06	 8.507E+05	-1.632E+06	 4.495E+03	 4.047E+01	 2.006E-01	-1.932E+06	-1.077E+06	-5.839E+05	-1.555E+05	-3.337E+04	 1.855E+03	-8.564E+06	-3.178E+03	-2.742E+04	-1.818E+05
    0.8500	 1.177E+01	 1.554E+00	-5.439E-01	 5.824E+00	-1.101E+00	 0.000E+00	 0.000E+00	 6.040E+01	 1.170E+01	 1.131E+03	 3.330E-01	-4.166E-02	 0.000E+00	-7.112E-02	 4.469E-03	 4.459E-02	 3.100E-01	 6.080E+02	 2.848E+03	 2.197E+02	-1.910E+02	 4.496E+02	 4.746E+03	 8.990E+03	-7.689E+01	 4.844E+03	-4.751E+02	 9.711E+02	 8.613E+00	 1.674E+02	-3.431E+03	 4.520E+03	 5.306E+01	-1.518E+02	 6.098E+05	-1.143E+04	 4.052E+03	 3.300E+06	 8.131E+05	-1.399E+06	 4.442E+03	 3.972E+01	 1.908E-01	-9.779E+05	-1.280E+06	-3.043E+05	-2.002E+05	-3.312E+04	 9.969E+02	-8.555E+06	-1.644E+03	-2.647E+04	-1.499E+05
    0.9000	 1.167E+01	 1.526E+00	-4.444E-01	 5.537E+00	-1.015E+00	 0.000E+00	 0.000E+00	 6.391E+01	 1.169E+01	 1.141E+03	 3.872E-01	-4.762E-02	 0.000E+00	-7.623E-02	 1.067E-02	 2.819E-02	 3.609E-01	 4.784E+02	 2.685E+03	 2.094E+02	-2.011E+02	 4.723E+02	 4.595E+03	 8.460E+03	-5.540E+01	 4.729E+03	-3.633E+02	 9.757E+02	-7.265E+00	 3.366E+01	-3.426E+03	 4.681E+03	 1.180E+02	 1.103E+02	 6.158E+05	-1.177E+04	 4.438E+03	 3.505E+06	 1.531E+06	-1.570E+06	 4.394E+03	 3.897E+01	 1.810E-01	-2.576E+03	-1.712E+06	-4.072E+04	-3.372E+05	-3.426E+04	 1.832E+02	-8.550E+06	-2.711E+02	-2.824E+04	 1.272E+05
    0.9500	 1.180E+01	 1.257E+00	-3.404E-01	 5.250E+00	-9.380E-01	 0.000E+00	 0.000E+00	 6.742E+01	 1.168E+01	 1.147E+03	 4.451E-01	-5.458E-02	 0.000E+00	-8.267E-02	 1.743E-02	 1.041E-02	 4.107E-01	 3.953E+02	 2.560E+03	 1.950E+02	-1.984E+02	 4.896E+02	 4.326E+03	 7.961E+03	-4.509E+01	 4.175E+03	-3.451E+02	 1.071E+03	 1.688E-01	-9.694E+01	-3.427E+03	 4.375E+03	 9.758E+01	-1.049E+00	 6.213E+05	-1.365E+04	 2.961E+03	 3.667E+06	 1.850E+06	-1.313E+06	 4.335E+03	 3.822E+01	 1.712E-01	 1.417E+06	-1.862E+06	 3.725E+05	-3.907E+05	-3.454E+04	-1.069E+03	-8.551E+06	 1.860E+03	-2.865E+04	-2.680E+04
    1.0000	 1.175E+01	 1.369E+00	-5.957E-01	 5.000E+00	-8.933E-01	 0.000E+00	 0.000E+00	 7.092E+01	 1.168E+01	 1.148E+03	 5.068E-01	-6.222E-02	 0.000E+00	-9.070E-02	 2.324E-02	-3.043E-03	 4.585E-01	 3.817E+02	 2.464E+03	 1.840E+02	-1.905E+02	 5.039E+02	 4.106E+03	 7.604E+03	-4.371E+01	 3.419E+03	-3.637E+02	 1.309E+03	 1.338E+01	-1.871E+02	-3.441E+03	 3.790E+03	-2.136E+02	-1.286E+02	 6.339E+05	-1.292E+04	 3.431E+03	 3.776E+06	 1.610E+06	-9.388E+05	 4.309E+03	 3.795E+01	 1.614E-01	 2.890E+06	-1.377E+06	 8.208E+05	-2.363E+05	-3.385E+04	-2.520E+03	-8.565E+06	 4.392E+03	-2.762E+04	-2.009E+05
    1.0500	 1.213E+01	 1.700E+00	-4.629E-01	 4.798E+00	-8.768E-01	 0.000E+00	 0.000E+00	 7.443E+01	 1.171E+01	 1.143E+03	 5.718E-01	-6.985E-02	 0.000E+00	-9.970E-02	 2.636E-02	-5.805E-03	 5.065E-01	 4.006E+02	 2.375E+03	 1.895E+02	-1.871E+02	 5.247E+02	 4.047E+03	 7.546E+03	-4.384E+01	 2.898E+03	-1.372E+02	 1.586E+03	 4.211E+01	-2.481E+02	-3.461E+03	 3.413E+03	-4.489E+02	 1.672E+02	 6.358E+05	-1.181E+04	 6.390E+03	 3.756E+06	 9.799E+05	-1.271E+06	 4.281E+03	 3.788E+01	 1.414E-01	 3.362E+06	-7.962E+05	 9.545E+05	-5.939E+04	-3.389E+04	-2.943E+03	-8.586E+06	 5.103E+03	-2.629E+04	 9.415E+04
    1.1000	 1.233E+01	 1.703E+00	-2.033E-02	 4.644E+00	-8.764E-01	 0.000E+00	 0.000E+00	 7.795E+01	 1.178E+01	 1.136E+03	 6.398E-01	-7.733E-02	 0.000E+00	-1.090E-01	 2.630E-02	 4.134E-03	 5.571E-01	 3.998E+02	 2.307E+03	 1.989E+02	-1.941E+02	 5.443E+02	 4.182E+03	 7.647E+03	-4.691E+01	 2.970E+03	 1.681E+02	 1.558E+03	 8.218E+01	-2.347E+02	-3.473E+03	 3.478E+03	-2.378E+02	 4.527E+02	 6.147E+05	-1.034E+04	 8.489E+03	 3.596E+06	 9.443E+05	-1.468E+06	 4.223E+03	 3.760E+01	 1.213E-01	 3.003E+06	-5.491E+05	 8.426E+05	-5.120E+02	-3.304E+04	-2.584E+03	-8.598E+06	 4.477E+03	-2.565E+04	 4.070E+05
    1.1500	 1.180E+01	 1.356E+00	-8.190E-02	 4.537E+00	-8.971E-01	 0.000E+00	 0.000E+00	 8.149E+01	 1.179E+01	 1.132E+03	 7.110E-01	-8.474E-02	 0.000E+00	-1.186E-01	 2.352E-02	 2.512E-02	 6.110E-01	 4.043E+02	 2.247E+03	 2.127E+02	-2.085E+02	 5.479E+02	 4.495E+03	 7.974E+03	-4.662E+01	 3.447E+03	 5.546E+02	 1.341E+03	 1.162E+02	-1.366E+02	-3.485E+03	 3.760E+03	 1.221E+02	 3.417E+02	 5.915E+05	-9.393E+03	 1.223E+04	 3.339E+06	 5.651E+05	-2.282E+06	 4.160E+03	 3.717E+01	 1.012E-01	 2.203E+06	-3.459E+05	 6.169E+05	 4.557E+04	-3.304E+04	-1.853E+03	-8.609E+06	 3.166E+03	-2.611E+04	 2.663E+05
    1.2000	 1.152E+01	 1.350E+00	-2.400E-01	 4.474E+00	-9.491E-01	 0.000E+00	 0.000E+00	 8.502E+01	 1.175E+01	 1.133E+03	 7.855E-01	-9.208E-02	 0.000E+00	-1.284E-01	 1.883E-02	 5.387E-02	 6.684E-01	 4.859E+02	 2.222E+03	 2.273E+02	-2.175E+02	 5.529E+02	 4.828E+03	 8.319E+03	-5.982E+01	 3.852E+03	 9.961E+02	 1.039E+03	 1.260E+02	-1.654E+01	-3.492E+03	 3.951E+03	 3.682E+02	 5.962E+02	 5.695E+05	-5.526E+03	 1.551E+04	 3.098E+06	 7.354E+04	-2.604E+06	 4.114E+03	 3.673E+01	 8.115E-02	 8.303E+05	 9.370E+04	 2.154E+05	 1.787E+05	-3.222E+04	-5.418E+02	-8.616E+06	 1.093E+03	-2.374E+04	 5.557E+05
    1.2500	 1.219E+01	 1.603E+00	-3.422E-01	 4.464E+00	-1.020E+00	 0.000E+00	 0.000E+00	 8.854E+01	 1.174E+01	 1.137E+03	 8.633E-01	-9.956E-02	 0.000E+00	-1.380E-01	 1.373E-02	 8.482E-02	 7.309E-01	 6.343E+02	 2.219E+03	 2.412E+02	-2.161E+02	 5.622E+02	 5.079E+03	 8.575E+03	-7.573E+01	 4.004E+03	 1.445E+03	 6.343E+02	 1.239E+02	 1.033E+02	-3.493E+03	 3.913E+03	 6.724E+02	 1.189E+03	 5.554E+05	-2.751E+03	 1.656E+04	 2.871E+06	-4.465E+05	-2.744E+06	 4.091E+03	 3.640E+01	 6.107E-02	-6.240E+05	 3.523E+05	-2.104E+05	 2.573E+05	-3.179E+04	 7.993E+02	-8.617E+06	-1.348E+03	-2.295E+04	 1.234E+06
    1.3000	 1.233E+01	 1.314E+00	-3.462E-01	 4.505E+00	-1.075E+00	 0.000E+00	 0.000E+00	 9.206E+01	 1.175E+01	 1.141E+03	 9.444E-01	-1.074E-01	 0.000E+00	-1.473E-01	 9.743E-03	 1.120E-01	 7.993E-01	 7.472E+02	 2.230E+03	 2.426E+02	-2.113E+02	 5.642E+02	 5.220E+03	 8.616E+03	-8.667E+01	 3.979E+03	 1.646E+03	 1.310E+02	 1.215E+02	 2.167E+02	-3.484E+03	 3.679E+03	 1.161E+03	 1.294E+03	 5.314E+05	-7.125E+02	 1.577E+04	 2.646E+06	-8.403E+05	-2.133E+06	 4.088E+03	 3.624E+01	 2.810E-02	-1.591E+06	 1.815E+05	-4.787E+05	 1.917E+05	-3.141E+04	 1.645E+03	-8.608E+06	-2.683E+03	-2.334E+04	 1.367E+06
    1.3500	 1.254E+01	 9.614E-01	-6.045E-01	 4.569E+00	-1.083E+00	 0.000E+00	 0.000E+00	 9.559E+01	 1.175E+01	 1.145E+03	 1.029E+00	-1.156E-01	 0.000E+00	-1.566E-01	 7.767E-03	 1.319E-01	 8.725E-01	 7.484E+02	 2.265E+03	 2.296E+02	-2.112E+02	 5.663E+02	 5.230E+03	 8.385E+03	-1.047E+02	 3.813E+03	 1.517E+03	-1.578E+02	 1.131E+02	 2.752E+02	-3.470E+03	 3.381E+03	 1.416E+03	 1.006E+03	 5.076E+05	 1.397E+03	 1.312E+04	 2.420E+06	-1.148E+06	-1.826E+06	 4.098E+03	 3.621E+01	-4.871E-03	-2.229E+06	 1.024E+03	-6.607E+05	 1.293E+05	-3.218E+04	 2.110E+03	-8.593E+06	-3.621E+03	-2.422E+04	 1.083E+06
    1.4000	 1.250E+01	 7.936E-01	-6.447E-01	 4.624E+00	-1.043E+00	 0.000E+00	 0.000E+00	 9.911E+01	 1.173E+01	 1.146E+03	 1.117E+00	-1.242E-01	 0.000E+00	-1.663E-01	 8.419E-03	 1.419E-01	 9.491E-01	 6.426E+02	 2.275E+03	 2.185E+02	-2.181E+02	 5.742E+02	 5.142E+03	 8.095E+03	-7.617E+01	 3.498E+03	 1.424E+03	-1.260E+02	 9.221E+01	 2.656E+02	-3.459E+03	 3.078E+03	 1.210E+03	 8.967E+02	 5.065E+05	-4.550E+02	 1.127E+04	 2.311E+06	-1.060E+06	-1.868E+06	 4.108E+03	 3.626E+01	-3.784E-02	-2.418E+06	 1.224E+05	-7.227E+05	 1.736E+05	-3.249E+04	 2.422E+03	-8.583E+06	-3.850E+03	-2.371E+04	 9.844E+05
    1.4500	 1.244E+01	 7.325E-01	-6.416E-01	 4.639E+00	-9.778E-01	 0.000E+00	 0.000E+00	 1.026E+02	 1.167E+01	 1.144E+03	 1.208E+00	-1.332E-01	 0.000E+00	-1.763E-01	 1.193E-02	 1.413E-01	 1.030E+00	 5.122E+02	 2.265E+03	 2.071E+02	-2.197E+02	 5.885E+02	 4.907E+03	 7.762E+03	-7.670E+01	 3.005E+03	 1.340E+03	-4.142E+01	 6.698E+01	 2.126E+02	-3.446E+03	 2.695E+03	 9.532E+02	 1.014E+03	 5.020E+05	 1.025E+03	 9.802E+03	 2.210E+06	-1.305E+06	-1.785E+06	 4.103E+03	 3.629E+01	-7.081E-02	-1.797E+06	 1.925E+05	-5.382E+05	 2.048E+05	-3.230E+04	 1.623E+03	-8.571E+06	-2.696E+03	-2.430E+04	 1.113E+06
    1.5000	 1.221E+01	 4.110E-01	-5.869E-01	 4.604E+00	-9.143E-01	 0.000E+00	 0.000E+00	 1.061E+02	 1.158E+01	 1.136E+03	 1.303E+00	-1.426E-01	 0.000E+00	-1.865E-01	 1.759E-02	 1.326E-01	 1.114E+00	 4.257E+02	 2.245E+03	 1.952E+02	-2.090E+02	 5.986E+02	 4.549E+03	 7.465E+03	-6.683E+01	 2.388E+03	 1.195E+03	 2.099E+01	 5.603E+01	 1.169E+02	-3.431E+03	 2.255E+03	 9.074E+02	 8.595E+02	 5.041E+05	 1.491E+03	 9.669E+03	 2.178E+06	-1.438E+06	-1.702E+06	 4.061E+03	 3.615E+01	-1.038E-01	-6.965E+05	-1.311E+05	-2.136E+05	 9.933E+04	-3.058E+04	 7.288E+02	-8.555E+06	-1.084E+03	-2.260E+04	 9.030E+05
    1.5500	 1.164E+01	 1.116E+00	-3.293E-03	 4.513E+00	-8.625E-01	 0.000E+00	 0.000E+00	 1.096E+02	 1.152E+01	 1.124E+03	 1.401E+00	-1.520E-01	 0.000E+00	-1.974E-01	 2.419E-02	 1.206E-01	 1.201E+00	 3.797E+02	 2.192E+03	 1.919E+02	-1.958E+02	 6.073E+02	 4.225E+03	 7.337E+03	-6.092E+01	 1.946E+03	 1.217E+03	 1.938E+02	 5.406E+01	 1.577E+00	-3.423E+03	 2.027E+03	 7.330E+02	 6.411E+02	 4.820E+05	 1.065E+03	 7.235E+03	 2.032E+06	-1.537E+06	-1.060E+06	 3.966E+03	 3.570E+01	-1.461E-01	 4.760E+05	-3.866E+05	 1.251E+05	 1.178E+04	-3.263E+04	-3.547E+02	-8.546E+06	 5.278E+02	-2.372E+04	 5.892E+05
    1.6000	 1.170E+01	 1.495E+00	-6.674E-01	 4.374E+00	-8.206E-01	 0.000E+00	 0.000E+00	 1.130E+02	 1.150E+01	 1.110E+03	 1.502E+00	-1.613E-01	 0.000E+00	-2.095E-01	 3.049E-02	 1.099E-01	 1.289E+00	 3.498E+02	 2.117E+03	 1.943E+02	-1.876E+02	 6.255E+02	 4.003E+03	 7.248E+03	-6.604E+01	 1.999E+03	 1.368E+03	 3.426E+02	 3.835E+01	-8.708E+01	-3.425E+03	 2.272E+03	 3.306E+02	 9.586E+02	 4.758E+05	-1.089E+02	 6.051E+03	 1.960E+06	-1.163E+06	-1.363E+06	 3.837E+03	 3.497E+01	-1.883E-01	 1.545E+06	-1.280E+05	 4.345E+05	 1.024E+05	-3.024E+04	-1.384E+03	-8.549E+06	 2.494E+03	-2.125E+04	 8.884E+05
    1.6500	 1.130E+01	 1.368E+00	-1.089E+00	 4.216E+00	-7.899E-01	 0.000E+00	 0.000E+00	 1.165E+02	 1.148E+01	 1.100E+03	 1.607E+00	-1.705E-01	 0.000E+00	-2.225E-01	 3.540E-02	 1.048E-01	 1.378E+00	 3.262E+02	 2.038E+03	 1.990E+02	-1.851E+02	 6.398E+02	 3.903E+03	 7.198E+03	-6.926E+01	 2.536E+03	 1.529E+03	 3.960E+02	 3.234E+01	-1.428E+02	-3.433E+03	 2.929E+03	 4.752E+01	 1.178E+03	 4.997E+05	 1.037E+03	 8.694E+03	 2.076E+06	-1.367E+06	-1.764E+06	 3.720E+03	 3.422E+01	-2.306E-01	 2.133E+06	 8.909E+04	 5.967E+05	 1.741E+05	-2.868E+04	-1.900E+03	-8.559E+06	 3.505E+03	-1.891E+04	 1.084E+06
    1.7000	 1.170E+01	 1.255E+00	-8.126E-01	 4.071E+00	-7.766E-01	 0.000E+00	 0.000E+00	 1.199E+02	 1.148E+01	 1.096E+03	 1.715E+00	-1.796E-01	 0.000E+00	-2.362E-01	 3.844E-02	 1.073E-01	 1.471E+00	 3.315E+02	 1.965E+03	 1.982E+02	-1.816E+02	 6.423E+02	 3.867E+03	 7.136E+03	-6.121E+01	 3.314E+03	 1.530E+03	 3.878E+02	 4.969E+01	-1.600E+02	-3.439E+03	 3.720E+03	 8.849E+01	 9.336E+02	 5.140E+05	-3.904E+01	 1.083E+04	 2.215E+06	-9.657E+05	-2.213E+06	 3.627E+03	 3.347E+01	-2.729E-01	 2.214E+06	-4.147E+04	 6.085E+05	 1.162E+05	-2.870E+04	-1.668E+03	-8.565E+06	 3.067E+03	-1.885E+04	 7.907E+05
    1.7500	 1.149E+01	 1.174E+00	-3.561E-01	 3.954E+00	-7.811E-01	 0.000E+00	 0.000E+00	 1.234E+02	 1.149E+01	 1.101E+03	 1.826E+00	-1.890E-01	 0.000E+00	-2.510E-01	 3.968E-02	 1.174E-01	 1.564E+00	 3.839E+02	 1.916E+03	 1.975E+02	-1.736E+02	 6.459E+02	 3.825E+03	 7.025E+03	-5.941E+01	 4.034E+03	 1.526E+03	 4.007E+02	 6.876E+01	-1.287E+02	-3.448E+03	 4.366E+03	 7.289E+01	 8.159E+02	 4.928E+05	-6.830E+02	 1.065E+04	 2.140E+06	-8.567E+05	-1.777E+06	 3.568E+03	 3.279E+01	-3.152E-01	 2.044E+06	 5.325E+04	 5.581E+05	 1.341E+05	-2.926E+04	-1.685E+03	-8.573E+06	 3.076E+03	-2.042E+04	 6.713E+05
    1.8000	 1.119E+01	 1.005E+00	-5.171E-01	 3.868E+00	-7.889E-01	 0.000E+00	 0.000E+00	 1.268E+02	 1.152E+01	 1.111E+03	 1.941E+00	-1.988E-01	 0.000E+00	-2.670E-01	 3.936E-02	 1.342E-01	 1.659E+00	 4.502E+02	 1.869E+03	 1.946E+02	-1.616E+02	 6.552E+02	 3.734E+03	 6.867E+03	-6.637E+01	 4.473E+03	 1.570E+03	 3.797E+02	 7.262E+01	-7.510E+01	-3.461E+03	 4.706E+03	-1.222E+02	 9.504E+02	 4.831E+05	-2.526E+02	 9.359E+03	 2.051E+06	-7.897E+05	-1.371E+06	 3.589E+03	 3.267E+01	-3.595E-01	 1.539E+06	 6.124E+05	 4.110E+05	 3.123E+05	-2.679E+04	-1.156E+03	-8.588E+06	 2.134E+03	-1.528E+04	 8.596E+05
    1.8500	 1.132E+01	 1.195E+00	-1.084E+00	 3.810E+00	-7.759E-01	 0.000E+00	 0.000E+00	 1.303E+02	 1.159E+01	 1.124E+03	 2.060E+00	-2.093E-01	 0.000E+00	-2.835E-01	 3.804E-02	 1.556E-01	 1.757E+00	 4.613E+02	 1.852E+03	 1.878E+02	-1.512E+02	 6.612E+02	 3.572E+03	 6.667E+03	-6.077E+01	 4.592E+03	 1.517E+03	 2.729E+02	 8.100E+01	-1.696E+01	-3.470E+03	 4.708E+03	-1.068E+02	 8.960E+02	 4.712E+05	 2.999E+02	 6.845E+03	 1.956E+06	-7.409E+05	-7.835E+05	 3.624E+03	 3.262E+01	-4.038E-01	 7.863E+05	 9.697E+05	 1.892E+05	 4.122E+05	-2.476E+04	-4.029E+02	-8.599E+06	 7.082E+02	-1.465E+04	 8.491E+05
    1.9000	 1.162E+01	 1.305E+00	-1.206E+00	 3.767E+00	-7.296E-01	 0.000E+00	 0.000E+00	 1.338E+02	 1.165E+01	 1.136E+03	 2.181E+00	-2.205E-01	 0.000E+00	-3.004E-01	 3.654E-02	 1.785E-01	 1.859E+00	 3.875E+02	 1.832E+03	 1.803E+02	-1.448E+02	 6.620E+02	 3.341E+03	 6.528E+03	-5.764E+01	 4.398E+03	 1.384E+03	 3.989E+01	 1.008E+02	 4.683E+01	-3.471E+03	 4.382E+03	 2.290E+02	 7.460E+02	 4.628E+05	 2.502E+03	 5.033E+03	 1.859E+06	-9.086E+05	 2.725E+04	 3.665E+03	 3.263E+01	-4.482E-01	 1.488E+05	 8.878E+05	 9.856E+03	 3.676E+05	-2.654E+04	 4.176E+02	-8.598E+06	-5.927E+02	-1.540E+04	 7.249E+05
    1.9500	 1.123E+01	 1.275E+00	-1.107E+00	 3.727E+00	-6.592E-01	 0.000E+00	 0.000E+00	 1.373E+02	 1.165E+01	 1.145E+03	 2.306E+00	-2.326E-01	 0.000E+00	-3.178E-01	 3.547E-02	 2.003E-01	 1.965E+00	 2.647E+02	 1.814E+03	 1.797E+02	-1.395E+02	 6.682E+02	 3.036E+03	 6.467E+03	-4.351E+01	 3.831E+03	 1.398E+03	-1.508E+02	 1.137E+02	 9.217E+01	-3.468E+03	 3.744E+03	 3.614E+02	 9.206E+02	 4.655E+05	 1.470E+03	 4.691E+03	 1.841E+06	-9.293E+05	-1.355E+05	 3.701E+03	 3.268E+01	-4.925E-01	-3.551E+05	 9.708E+05	-1.300E+05	 3.820E+05	-2.540E+04	 3.096E+02	-8.595E+06	-5.880E+02	-1.480E+04	 9.561E+05
    2.0000	 1.096E+01	 1.196E+00	-1.162E+00	 3.685E+00	-5.862E-01	 0.000E+00	 0.000E+00	 1.408E+02	 1.162E+01	 1.148E+03	 2.435E+00	-2.455E-01	 0.000E+00	-3.361E-01	 3.526E-02	 2.193E-01	 2.074E+00	 1.465E+02	 1.795E+03	 1.770E+02	-1.312E+02	 6.800E+02	 2.680E+03	 6.391E+03	-3.818E+01	 2.931E+03	 1.463E+03	-2.492E+02	 1.043E+02	 1.036E+02	-3.463E+03	 2.839E+03	 2.010E+02	 1.109E+03	 4.804E+05	 2.412E+03	 2.799E+03	 1.950E+06	-8.578E+05	 3.637E+05	 3.716E+03	 3.276E+01	-5.368E-01	-7.055E+05	 1.422E+06	-2.300E+05	 5.294E+05	-2.502E+04	 6.013E+02	-8.592E+06	-8.207E+02	-1.239E+04	 1.201E+06
    2.0500	 1.081E+01	 1.090E+00	-5.259E-01	 3.648E+00	-5.306E-01	 0.000E+00	 0.000E+00	 1.442E+02	 1.156E+01	 1.141E+03	 2.566E+00	-2.590E-01	 0.000E+00	-3.547E-01	 3.623E-02	 2.343E-01	 2.188E+00	 6.781E+01	 1.775E+03	 1.800E+02	-1.213E+02	 6.863E+02	 2.371E+03	 6.479E+03	-2.346E+01	 1.961E+03	 1.609E+03	-2.187E+02	 1.051E+02	 1.029E+02	-3.448E+03	 1.867E+03	 2.359E+01	 9.642E+02	 4.883E+05	 1.387E+03	 1.425E+03	 2.096E+06	-5.849E+05	 4.643E+05	 3.700E+03	 3.281E+01	-5.761E-01	-6.541E+05	 1.549E+06	-2.040E+05	 5.622E+05	-2.182E+04	 8.841E+02	-8.579E+06	-1.041E+03	-8.422E+03	 1.041E+06
    2.1000	 1.090E+01	 1.403E+00	-4.837E-01	 3.639E+00	-5.028E-01	 0.000E+00	 0.000E+00	 1.477E+02	 1.149E+01	 1.126E+03	 2.701E+00	-2.729E-01	 0.000E+00	-3.734E-01	 3.815E-02	 2.459E-01	 2.306E+00	 4.159E+01	 1.778E+03	 1.844E+02	-1.095E+02	 6.908E+02	 2.146E+03	 6.609E+03	-2.209E+01	 1.264E+03	 1.745E+03	-1.590E+02	 1.137E+02	 9.490E+01	-3.423E+03	 1.182E+03	-2.700E+01	 8.739E+02	 4.780E+05	 7.052E+01	 2.324E+03	 2.073E+06	-4.950E+05	-1.465E+05	 3.652E+03	 3.281E+01	-6.153E-01	-4.033E+05	 1.325E+06	-1.196E+05	 4.823E+05	-2.030E+04	 5.977E+02	-8.553E+06	-5.541E+02	-1.129E+04	 9.292E+05
    2.1500	 1.074E+01	 1.089E+00	-8.614E-01	 3.658E+00	-5.026E-01	 0.000E+00	 0.000E+00	 1.511E+02	 1.142E+01	 1.107E+03	 2.839E+00	-2.868E-01	 0.000E+00	-3.928E-01	 4.063E-02	 2.553E-01	 2.428E+00	 4.465E+01	 1.790E+03	 1.878E+02	-1.036E+02	 6.979E+02	 2.097E+03	 6.716E+03	-2.350E+01	 1.098E+03	 2.003E+03	-1.040E+02	 1.093E+02	 7.215E+01	-3.396E+03	 1.058E+03	-2.859E+02	 8.775E+02	 4.675E+05	-5.360E+02	 2.901E+03	 1.951E+06	-3.515E+05	-1.628E+05	 3.582E+03	 3.274E+01	-6.546E-01	-3.059E+05	 1.313E+06	-9.651E+04	 4.721E+05	-2.281E+04	 4.975E+02	-8.526E+06	-6.907E+02	-1.063E+04	 9.350E+05
    2.2000	 1.125E+01	-2.430E-02	-1.328E+00	 3.701E+00	-5.286E-01	 0.000E+00	 0.000E+00	 1.545E+02	 1.136E+01	 1.089E+03	 2.981E+00	-3.006E-01	 0.000E+00	-4.130E-01	 4.359E-02	 2.630E-01	 2.554E+00	 7.783E+01	 1.819E+03	 1.899E+02	-1.046E+02	 7.062E+02	 2.219E+03	 6.798E+03	-2.550E+01	 1.511E+03	 2.237E+03	-1.099E+01	 8.880E+01	 5.659E+01	-3.376E+03	 1.485E+03	-6.880E+02	 7.304E+02	 4.657E+05	 4.734E+02	 2.317E+03	 1.918E+06	-4.044E+05	 8.625E+04	 3.509E+03	 3.259E+01	-6.938E-01	-1.732E+05	 1.547E+06	-6.451E+04	 5.530E+05	-2.297E+04	 3.887E+02	-8.509E+06	-1.443E+02	-9.461E+03	 7.779E+05
    2.2500	 1.132E+01	-5.379E-02	-1.202E+00	 3.760E+00	-5.802E-01	 0.000E+00	 0.000E+00	 1.579E+02	 1.129E+01	 1.078E+03	 3.126E+00	-3.143E-01	 0.000E+00	-4.337E-01	 4.699E-02	 2.692E-01	 2.683E+00	 1.576E+02	 1.853E+03	 1.912E+02	-1.058E+02	 7.078E+02	 2.435E+03	 6.886E+03	-3.613E+01	 2.279E+03	 2.365E+03	 6.615E+01	 7.788E+01	 5.122E+01	-3.352E+03	 2.234E+03	-8.653E+02	 4.306E+02	 4.588E+05	 3.961E+02	 7.913E+02	 1.859E+06	-7.460E+05	-8.752E+04	 3.450E+03	 3.238E+01	-7.330E-01	 8.243E+04	 1.471E+06	 7.552E+03	 5.284E+05	-2.190E+04	 2.929E+02	-8.486E+06	-2.645E+02	-1.199E+04	 4.364E+05
    2.3000	 1.156E+01	 3.134E-01	-1.293E+00	 3.822E+00	-6.463E-01	 0.000E+00	 0.000E+00	 1.613E+02	 1.125E+01	 1.074E+03	 3.274E+00	-3.280E-01	 0.000E+00	-4.549E-01	 5.062E-02	 2.748E-01	 2.815E+00	 2.837E+02	 1.880E+03	 1.968E+02	-1.011E+02	 7.044E+02	 2.634E+03	 7.067E+03	-4.529E+01	 3.117E+03	 2.533E+03	-2.433E+01	 8.295E+01	 3.667E+01	-3.330E+03	 3.085E+03	-9.043E+02	 2.821E+02	 4.384E+05	-4.644E+02	 7.485E+02	 1.748E+06	-6.153E+05	-1.336E+05	 3.414E+03	 3.216E+01	-7.632E-01	 2.728E+05	 1.155E+06	 5.389E+04	 4.198E+05	-1.776E+04	-4.450E+01	-8.462E+06	 6.160E+02	-4.651E+03	 2.458E+05